# vtk DataFile Version 3.0 
Right rectangular prisms grid 
ASCII 
DATASET UNSTRUCTURED_GRID 

POINTS 8 double 
0 0 0 
50 0 0 
0 50 0 
50 50 0 
0 0 50 
50 0 100
0 50 100
50 50 100

CELLS 1 9 
8 0 1 2 3 4 5 6 7 

CELL_TYPES 1 
11 

CELL_DATA 1 
SCALARS density double 1 
LOOKUP_TABLE table1 
1 

SCALARS resistivity double 
1 LOOKUP_TABLE table2 
2 

SCALARS temperature double 1 
LOOKUP_TABLE table3 
3 

SCALARS susceptibility double 1 
LOOKUP_TABLE table4 
4 

SCALARS permittivity double 1 
LOOKUP_TABLE table4 
4